<?xml version="1.0" encoding="UTF-8"?>

<!-- generated on 2022-08-13 22:44:38 by Eclipse SUMO GUI Version v1_13_0+1476-db397b08357
<configuration xmlns:xsi="http://www.w3.org/2001/XMLSchema-instance" xsi:noNamespaceSchemaLocation="http://sumo.dlr.de/xsd/sumoConfiguration.xsd">

    <input>
        <net-file value="./configurations/test_vehicle_only_4corners.net.xml"/>
        <route-files value="./configurations/str_sumo.rou.xml"/>
    </input>

    <output>
        <netstate-dump value="./configurations/test_dump.xml"/>
        <fcd-output value="./configurations/testTrace.xml"/>
        <tripinfo-output value="./configurations/trips.trips.xml"/>
    </output>

    <time>
        <begin value="0"/>
        <end value="200000"/>
    </time>

    <traci_server>
        <remote-port value="49501"/>
    </traci_server>

    <gui_only>
        <quit-on-end value="true"/>
    </gui_only>

</configuration>
-->

<tripinfos xmlns:xsi="http://www.w3.org/2001/XMLSchema-instance" xsi:noNamespaceSchemaLocation="http://sumo.dlr.de/xsd/tripinfo_file.xsd">
    <tripinfo id="54" depart="12.00" departLane="918280985_0" departPos="5.10" departSpeed="0.00" departDelay="1.60" arrival="76.00" arrivalLane="-318908683#1_0" arrivalPos="71.22" arrivalSpeed="13.98" duration="64.00" routeLength="664.13" waitingTime="21.00" waitingCount="1" stopTime="0.00" timeLoss="33.99" rerouteNo="4" devices="tripinfo_54 fcd_54" vType="DEFAULT_VEHTYPE" speedFactor="1.02" vaporized=""/>
    <tripinfo id="4" depart="1.00" departLane="918280985_0" departPos="5.10" departSpeed="0.00" departDelay="0.60" arrival="85.00" arrivalLane="15374898#0-AddedOffRampEdge_0" arrivalPos="100.00" arrivalSpeed="27.77" duration="84.00" routeLength="996.81" waitingTime="28.00" waitingCount="1" stopTime="0.00" timeLoss="44.77" rerouteNo="6" devices="tripinfo_4 fcd_4" vType="DEFAULT_VEHTYPE" speedFactor="1.01" vaporized=""/>
    <tripinfo id="14" depart="3.00" departLane="597602753#0_0" departPos="5.10" departSpeed="0.00" departDelay="0.60" arrival="87.00" arrivalLane="-597602756#0_0" arrivalPos="325.99" arrivalSpeed="22.74" duration="84.00" routeLength="1646.06" waitingTime="0.00" waitingCount="0" stopTime="0.00" timeLoss="11.18" rerouteNo="8" devices="tripinfo_14 fcd_14" vType="DEFAULT_VEHTYPE" speedFactor="1.05" vaporized=""/>
    <tripinfo id="31" depart="14.00" departLane="318908683#0_0" departPos="5.10" departSpeed="0.00" departDelay="8.20" arrival="87.00" arrivalLane="260998164#0_0" arrivalPos="257.55" arrivalSpeed="25.07" duration="73.00" routeLength="939.98" waitingTime="18.00" waitingCount="1" stopTime="0.00" timeLoss="32.75" rerouteNo="8" devices="tripinfo_31 fcd_31" vType="DEFAULT_VEHTYPE" speedFactor="0.93" vaporized=""/>
    <tripinfo id="21" depart="6.00" departLane="597602753#0_0" departPos="5.10" departSpeed="0.00" departDelay="2.20" arrival="88.00" arrivalLane="-597602756#0_0" arrivalPos="325.99" arrivalSpeed="24.08" duration="82.00" routeLength="1646.06" waitingTime="0.00" waitingCount="0" stopTime="0.00" timeLoss="16.40" rerouteNo="8" devices="tripinfo_21 fcd_21" vType="DEFAULT_VEHTYPE" speedFactor="1.16" vaporized=""/>
    <tripinfo id="153" depart="46.00" departLane="-260998164#3_0" departPos="5.10" departSpeed="0.00" departDelay="15.80" arrival="87.00" arrivalLane="422685680#1_2" arrivalPos="37.91" arrivalSpeed="9.88" duration="41.00" routeLength="858.59" waitingTime="0.00" waitingCount="0" stopTime="0.00" timeLoss="11.40" rerouteNo="8" devices="tripinfo_153 fcd_153" vType="DEFAULT_VEHTYPE" speedFactor="1.00" vaporized="teleport"/>
    <tripinfo id="42" depart="17.00" departLane="318908683#0_0" departPos="5.10" departSpeed="0.00" departDelay="9.00" arrival="89.00" arrivalLane="260998164#0_0" arrivalPos="257.55" arrivalSpeed="27.81" duration="72.00" routeLength="939.98" waitingTime="16.00" waitingCount="1" stopTime="0.00" timeLoss="35.04" rerouteNo="8" devices="tripinfo_42 fcd_42" vType="DEFAULT_VEHTYPE" speedFactor="1.03" vaporized=""/>
    <tripinfo id="68" depart="23.00" departLane="318908683#0_0" departPos="5.10" departSpeed="0.00" departDelay="9.80" arrival="94.00" arrivalLane="260998164#0_0" arrivalPos="257.55" arrivalSpeed="24.70" duration="71.00" routeLength="939.98" waitingTime="15.00" waitingCount="1" stopTime="0.00" timeLoss="30.00" rerouteNo="8" devices="tripinfo_68 fcd_68" vType="DEFAULT_VEHTYPE" speedFactor="0.91" vaporized=""/>
    <tripinfo id="228" depart="79.00" departLane="-260998164#3_0" departPos="5.10" departSpeed="0.00" departDelay="33.80" arrival="96.00" arrivalLane="422685674_0" arrivalPos="29.42" arrivalSpeed="33.71" duration="17.00" routeLength="296.06" waitingTime="0.00" waitingCount="0" stopTime="0.00" timeLoss="8.33" rerouteNo="1" devices="tripinfo_228 fcd_228" vType="DEFAULT_VEHTYPE" speedFactor="1.24" vaporized=""/>
    <tripinfo id="16" depart="9.00" departLane="597602756#0_0" departPos="5.10" departSpeed="0.00" departDelay="6.20" arrival="101.00" arrivalLane="-597602753#1_0" arrivalPos="150.67" arrivalSpeed="21.61" duration="92.00" routeLength="1638.96" waitingTime="0.00" waitingCount="0" stopTime="0.00" timeLoss="16.86" rerouteNo="8" devices="tripinfo_16 fcd_16" vType="DEFAULT_VEHTYPE" speedFactor="0.99" vaporized=""/>
    <tripinfo id="47" depart="16.00" departLane="-260998164#3_0" departPos="5.10" departSpeed="0.00" departDelay="7.00" arrival="101.00" arrivalLane="-597602756#0_0" arrivalPos="325.99" arrivalSpeed="23.58" duration="85.00" routeLength="1231.40" waitingTime="0.00" waitingCount="0" stopTime="0.00" timeLoss="18.35" rerouteNo="7" devices="tripinfo_47 fcd_47" vType="DEFAULT_VEHTYPE" speedFactor="1.09" vaporized=""/>
    <tripinfo id="53" depart="19.00" departLane="-260998164#3_0" departPos="5.10" departSpeed="0.00" departDelay="8.80" arrival="103.00" arrivalLane="-597602756#0_0" arrivalPos="325.99" arrivalSpeed="24.78" duration="84.00" routeLength="1231.40" waitingTime="0.00" waitingCount="0" stopTime="0.00" timeLoss="21.83" rerouteNo="7" devices="tripinfo_53 fcd_53" vType="DEFAULT_VEHTYPE" speedFactor="1.17" vaporized=""/>
    <tripinfo id="25" depart="9.00" departLane="597602753#0_0" departPos="5.10" departSpeed="0.00" departDelay="4.40" arrival="110.00" arrivalLane="-105681660#20_0" arrivalPos="806.12" arrivalSpeed="19.14" duration="101.00" routeLength="1387.72" waitingTime="16.00" waitingCount="1" stopTime="0.00" timeLoss="29.78" rerouteNo="4" devices="tripinfo_25 fcd_25" vType="DEFAULT_VEHTYPE" speedFactor="0.89" vaporized=""/>
    <tripinfo id="104" depart="49.00" departLane="918280985_0" departPos="5.10" departSpeed="0.00" departDelay="28.60" arrival="111.00" arrivalLane="15374898#0-AddedOffRampEdge_0" arrivalPos="100.00" arrivalSpeed="26.13" duration="62.00" routeLength="996.81" waitingTime="5.00" waitingCount="1" stopTime="0.00" timeLoss="21.11" rerouteNo="6" devices="tripinfo_104 fcd_104" vType="DEFAULT_VEHTYPE" speedFactor="0.97" vaporized=""/>
    <tripinfo id="15" depart="8.00" departLane="318908683#0_0" departPos="5.10" departSpeed="0.00" departDelay="5.40" arrival="112.00" arrivalLane="422688976#1_0" arrivalPos="294.31" arrivalSpeed="30.91" duration="104.00" routeLength="940.77" waitingTime="41.00" waitingCount="2" stopTime="0.00" timeLoss="71.23" rerouteNo="4" devices="tripinfo_15 fcd_15" vType="DEFAULT_VEHTYPE" speedFactor="1.12" vaporized=""/>
    <tripinfo id="8" depart="6.00" departLane="597602756#0_0" departPos="5.10" departSpeed="0.00" departDelay="4.80" arrival="116.00" arrivalLane="260998164#0_0" arrivalPos="257.55" arrivalSpeed="28.68" duration="110.00" routeLength="1239.91" waitingTime="20.00" waitingCount="1" stopTime="0.00" timeLoss="40.19" rerouteNo="7" devices="tripinfo_8 fcd_8" vType="DEFAULT_VEHTYPE" speedFactor="1.05" vaporized=""/>
    <tripinfo id="18" depart="4.00" departLane="422685671#2_0" departPos="5.10" departSpeed="0.00" departDelay="0.80" arrival="117.00" arrivalLane="-105681660#20_0" arrivalPos="806.12" arrivalSpeed="19.38" duration="113.00" routeLength="1816.55" waitingTime="0.00" waitingCount="0" stopTime="0.00" timeLoss="21.35" rerouteNo="5" devices="tripinfo_18 fcd_18" vType="DEFAULT_VEHTYPE" speedFactor="0.88" vaporized=""/>
    <tripinfo id="19" depart="7.00" departLane="-260998164#3_0" departPos="5.10" departSpeed="0.00" departDelay="3.60" arrival="118.00" arrivalLane="15374898#0-AddedOffRampEdge_1" arrivalPos="100.00" arrivalSpeed="26.07" duration="111.00" routeLength="1332.80" waitingTime="43.00" waitingCount="1" stopTime="0.00" timeLoss="59.40" rerouteNo="11" devices="tripinfo_19 fcd_19" vType="DEFAULT_VEHTYPE" speedFactor="0.94" vaporized=""/>
    <tripinfo id="70" depart="18.00" departLane="918280985_0" departPos="5.10" departSpeed="0.00" departDelay="4.40" arrival="118.00" arrivalLane="260998164#0_0" arrivalPos="257.55" arrivalSpeed="28.13" duration="100.00" routeLength="1460.33" waitingTime="18.00" waitingCount="2" stopTime="0.00" timeLoss="44.53" rerouteNo="11" devices="tripinfo_70 fcd_70" vType="DEFAULT_VEHTYPE" speedFactor="1.04" vaporized=""/>
    <tripinfo id="12" depart="5.00" departLane="318908683#0_0" departPos="5.10" departSpeed="0.00" departDelay="3.00" arrival="119.00" arrivalLane="-105681660#20_0" arrivalPos="806.12" arrivalSpeed="23.03" duration="114.00" routeLength="1436.85" waitingTime="22.00" waitingCount="1" stopTime="0.00" timeLoss="51.04" rerouteNo="4" devices="tripinfo_12 fcd_12" vType="DEFAULT_VEHTYPE" speedFactor="1.09" vaporized=""/>
    <tripinfo id="22" depart="11.00" departLane="318908683#0_0" departPos="5.10" departSpeed="0.00" departDelay="7.00" arrival="119.00" arrivalLane="-597602756#0_0" arrivalPos="325.99" arrivalSpeed="21.99" duration="108.00" routeLength="1401.85" waitingTime="20.00" waitingCount="1" stopTime="0.00" timeLoss="42.92" rerouteNo="6" devices="tripinfo_22 fcd_22" vType="DEFAULT_VEHTYPE" speedFactor="1.02" vaporized=""/>
    <tripinfo id="37" depart="13.00" departLane="-260998164#3_0" departPos="5.10" departSpeed="0.00" departDelay="6.00" arrival="119.00" arrivalLane="15374898#0-AddedOffRampEdge_0" arrivalPos="100.00" arrivalSpeed="27.14" duration="106.00" routeLength="1332.80" waitingTime="35.00" waitingCount="2" stopTime="0.00" timeLoss="58.60" rerouteNo="12" devices="tripinfo_37 fcd_37" vType="DEFAULT_VEHTYPE" speedFactor="1.02" vaporized=""/>
    <tripinfo id="40" depart="12.00" departLane="597602753#0_0" departPos="5.10" departSpeed="0.00" departDelay="4.40" arrival="120.00" arrivalLane="-105681660#20_0" arrivalPos="806.12" arrivalSpeed="23.79" duration="108.00" routeLength="1387.72" waitingTime="24.00" waitingCount="2" stopTime="0.00" timeLoss="50.06" rerouteNo="4" devices="tripinfo_40 fcd_40" vType="DEFAULT_VEHTYPE" speedFactor="1.10" vaporized=""/>
    <tripinfo id="59" depart="25.00" departLane="-260998164#3_0" departPos="5.10" departSpeed="0.00" departDelay="13.60" arrival="120.00" arrivalLane="15374898#0-AddedOffRampEdge_1" arrivalPos="100.00" arrivalSpeed="31.20" duration="95.00" routeLength="1332.80" waitingTime="23.00" waitingCount="2" stopTime="0.00" timeLoss="52.12" rerouteNo="12" devices="tripinfo_59 fcd_59" vType="DEFAULT_VEHTYPE" speedFactor="1.14" vaporized=""/>
    <tripinfo id="88" depart="37.00" departLane="-260998164#3_0" departPos="5.10" departSpeed="0.00" departDelay="19.80" arrival="122.00" arrivalLane="15374898#0-AddedOffRampEdge_1" arrivalPos="100.00" arrivalSpeed="27.02" duration="85.00" routeLength="1332.80" waitingTime="14.00" waitingCount="1" stopTime="0.00" timeLoss="36.72" rerouteNo="12" devices="tripinfo_88 fcd_88" vType="DEFAULT_VEHTYPE" speedFactor="1.00" vaporized=""/>
    <tripinfo id="5" depart="1.00" departLane="-260998164#3_0" departPos="5.10" departSpeed="0.00" departDelay="0.40" arrival="124.00" arrivalLane="422688976#1_0" arrivalPos="294.31" arrivalSpeed="29.06" duration="123.00" routeLength="1712.34" waitingTime="50.00" waitingCount="1" stopTime="0.00" timeLoss="65.31" rerouteNo="12" devices="tripinfo_5 fcd_5" vType="DEFAULT_VEHTYPE" speedFactor="1.08" vaporized=""/>
    <tripinfo id="36" depart="21.00" departLane="597602756#0_0" departPos="5.10" departSpeed="0.00" departDelay="14.20" arrival="124.00" arrivalLane="260998164#0_0" arrivalPos="257.55" arrivalSpeed="27.01" duration="103.00" routeLength="1239.91" waitingTime="8.00" waitingCount="2" stopTime="0.00" timeLoss="28.96" rerouteNo="7" devices="tripinfo_36 fcd_36" vType="DEFAULT_VEHTYPE" speedFactor="0.99" vaporized=""/>
    <tripinfo id="69" depart="28.00" departLane="-260998164#3_0" departPos="5.10" departSpeed="0.00" departDelay="14.60" arrival="124.00" arrivalLane="15374898#0-AddedOffRampEdge_0" arrivalPos="100.00" arrivalSpeed="25.29" duration="96.00" routeLength="1332.80" waitingTime="16.00" waitingCount="2" stopTime="0.00" timeLoss="42.68" rerouteNo="12" devices="tripinfo_69 fcd_69" vType="DEFAULT_VEHTYPE" speedFactor="0.91" vaporized=""/>
    <tripinfo id="188" depart="70.00" departLane="918280985_0" departPos="5.10" departSpeed="0.00" departDelay="32.80" arrival="126.00" arrivalLane="15374898#0-AddedOffRampEdge_0" arrivalPos="100.00" arrivalSpeed="28.71" duration="56.00" routeLength="996.81" waitingTime="2.00" waitingCount="1" stopTime="0.00" timeLoss="20.04" rerouteNo="6" devices="tripinfo_188 fcd_188" vType="DEFAULT_VEHTYPE" speedFactor="1.08" vaporized=""/>
    <tripinfo id="6" depart="1.00" departLane="422685671#2_0" departPos="5.10" departSpeed="0.00" departDelay="0.20" arrival="128.00" arrivalLane="260998164#0_0" arrivalPos="257.55" arrivalSpeed="28.41" duration="127.00" routeLength="1332.93" waitingTime="66.00" waitingCount="1" stopTime="0.00" timeLoss="79.16" rerouteNo="9" devices="tripinfo_6 fcd_6" vType="DEFAULT_VEHTYPE" speedFactor="1.03" vaporized=""/>
    <tripinfo id="44" depart="24.00" departLane="597602756#0_0" departPos="5.10" departSpeed="0.00" departDelay="15.60" arrival="128.00" arrivalLane="15374898#0-AddedOffRampEdge_0" arrivalPos="100.00" arrivalSpeed="29.40" duration="104.00" routeLength="1760.61" waitingTime="0.00" waitingCount="0" stopTime="0.00" timeLoss="26.11" rerouteNo="13" devices="tripinfo_44 fcd_44" vType="DEFAULT_VEHTYPE" speedFactor="1.09" vaporized=""/>
    <tripinfo id="72" depart="21.00" departLane="918280985_0" departPos="5.10" departSpeed="0.00" departDelay="7.00" arrival="128.00" arrivalLane="-597602753#1_0" arrivalPos="150.67" arrivalSpeed="21.45" duration="107.00" routeLength="1123.57" waitingTime="19.00" waitingCount="2" stopTime="0.00" timeLoss="41.43" rerouteNo="8" devices="tripinfo_72 fcd_72" vType="DEFAULT_VEHTYPE" speedFactor="1.02" vaporized=""/>
    <tripinfo id="90" depart="26.00" departLane="318908683#0_0" departPos="5.10" departSpeed="0.00" departDelay="8.40" arrival="130.00" arrivalLane="-597602756#0_0" arrivalPos="325.99" arrivalSpeed="21.48" duration="104.00" routeLength="1401.85" waitingTime="14.00" waitingCount="1" stopTime="0.00" timeLoss="39.00" rerouteNo="6" devices="tripinfo_90 fcd_90" vType="DEFAULT_VEHTYPE" speedFactor="1.01" vaporized=""/>
    <tripinfo id="56" depart="21.00" departLane="105681660#12_0" departPos="5.10" departSpeed="0.00" departDelay="10.20" arrival="133.00" arrivalLane="-597602753#1_0" arrivalPos="150.67" arrivalSpeed="21.49" duration="112.00" routeLength="1380.56" waitingTime="29.00" waitingCount="2" stopTime="0.00" timeLoss="48.90" rerouteNo="4" devices="tripinfo_56 fcd_56" vType="DEFAULT_VEHTYPE" speedFactor="1.00" vaporized=""/>
    <tripinfo id="52" depart="21.00" departLane="597602753#0_0" departPos="5.10" departSpeed="0.00" departDelay="11.00" arrival="134.00" arrivalLane="-105681660#20_0" arrivalPos="806.12" arrivalSpeed="18.61" duration="113.00" routeLength="1387.72" waitingTime="14.00" waitingCount="2" stopTime="0.00" timeLoss="38.35" rerouteNo="4" devices="tripinfo_52 fcd_52" vType="DEFAULT_VEHTYPE" speedFactor="0.85" vaporized=""/>
    <tripinfo id="11" depart="2.00" departLane="318908683#0_0" departPos="5.10" departSpeed="0.00" departDelay="0.20" arrival="135.00" arrivalLane="918280984_0" arrivalPos="38.72" arrivalSpeed="11.04" duration="133.00" routeLength="693.56" waitingTime="78.00" waitingCount="2" stopTime="0.00" timeLoss="97.14" rerouteNo="4" devices="tripinfo_11 fcd_11" vType="DEFAULT_VEHTYPE" speedFactor="0.86" vaporized=""/>
    <tripinfo id="149" depart="43.00" departLane="-260998164#3_0" departPos="5.10" departSpeed="0.00" departDelay="13.60" arrival="136.00" arrivalLane="-597602756#0_0" arrivalPos="325.99" arrivalSpeed="21.47" duration="93.00" routeLength="1231.40" waitingTime="1.00" waitingCount="1" stopTime="0.00" timeLoss="21.03" rerouteNo="7" devices="tripinfo_149 fcd_149" vType="DEFAULT_VEHTYPE" speedFactor="1.00" vaporized=""/>
    <tripinfo id="49" depart="20.00" departLane="318908683#0_0" departPos="5.10" departSpeed="0.00" departDelay="10.60" arrival="137.00" arrivalLane="918280984_0" arrivalPos="38.72" arrivalSpeed="11.39" duration="117.00" routeLength="693.56" waitingTime="61.00" waitingCount="2" stopTime="0.00" timeLoss="82.83" rerouteNo="4" devices="tripinfo_49 fcd_49" vType="DEFAULT_VEHTYPE" speedFactor="0.90" vaporized=""/>
    <tripinfo id="154" depart="49.00" departLane="-260998164#3_0" departPos="5.10" departSpeed="0.00" departDelay="18.60" arrival="137.00" arrivalLane="-597602756#0_0" arrivalPos="325.99" arrivalSpeed="22.92" duration="88.00" routeLength="1231.40" waitingTime="0.00" waitingCount="0" stopTime="0.00" timeLoss="21.05" rerouteNo="7" devices="tripinfo_154 fcd_154" vType="DEFAULT_VEHTYPE" speedFactor="1.07" vaporized=""/>
    <tripinfo id="91" depart="48.00" departLane="318908683#0_0" departPos="5.10" departSpeed="0.00" departDelay="30.20" arrival="139.00" arrivalLane="918280984_0" arrivalPos="38.72" arrivalSpeed="13.89" duration="91.00" routeLength="693.56" waitingTime="43.00" waitingCount="1" stopTime="0.00" timeLoss="60.35" rerouteNo="4" devices="tripinfo_91 fcd_91" vType="DEFAULT_VEHTYPE" speedFactor="1.02" vaporized=""/>
    <tripinfo id="9" depart="4.00" departLane="422688973_0" departPos="5.10" departSpeed="0.00" departDelay="2.60" arrival="141.00" arrivalLane="-105681660#20_0" arrivalPos="806.12" arrivalSpeed="19.53" duration="137.00" routeLength="1490.08" waitingTime="27.00" waitingCount="1" stopTime="0.00" timeLoss="46.53" rerouteNo="5" devices="tripinfo_9 fcd_9" vType="DEFAULT_VEHTYPE" speedFactor="0.89" vaporized=""/>
    <tripinfo id="95" depart="52.00" departLane="318908683#0_0" departPos="5.10" departSpeed="0.00" departDelay="33.40" arrival="141.00" arrivalLane="918280984_0" arrivalPos="38.72" arrivalSpeed="11.58" duration="89.00" routeLength="693.56" waitingTime="41.00" waitingCount="1" stopTime="0.00" timeLoss="55.17" rerouteNo="4" devices="tripinfo_95 fcd_95" vType="DEFAULT_VEHTYPE" speedFactor="0.92" vaporized=""/>
    <tripinfo id="166" depart="52.00" departLane="-260998164#3_0" departPos="5.10" departSpeed="0.00" departDelay="19.20" arrival="141.00" arrivalLane="-597602756#0_0" arrivalPos="325.99" arrivalSpeed="22.60" duration="89.00" routeLength="1231.40" waitingTime="0.00" waitingCount="0" stopTime="0.00" timeLoss="19.93" rerouteNo="7" devices="tripinfo_166 fcd_166" vType="DEFAULT_VEHTYPE" speedFactor="1.05" vaporized=""/>
    <tripinfo id="2" depart="0.00" departLane="597602756#0_0" departPos="5.10" departSpeed="0.00" departDelay="0.00" arrival="143.00" arrivalLane="918280984_0" arrivalPos="38.72" arrivalSpeed="13.45" duration="143.00" routeLength="1737.85" waitingTime="38.00" waitingCount="1" stopTime="0.00" timeLoss="67.97" rerouteNo="7" devices="tripinfo_2 fcd_2" vType="DEFAULT_VEHTYPE" speedFactor="1.06" vaporized=""/>
    <tripinfo id="82" depart="31.00" departLane="-260998164#3_0" departPos="5.10" departSpeed="0.00" departDelay="15.00" arrival="144.00" arrivalLane="918280984_0" arrivalPos="38.72" arrivalSpeed="13.66" duration="113.00" routeLength="1465.13" waitingTime="24.00" waitingCount="3" stopTime="0.00" timeLoss="58.16" rerouteNo="12" devices="tripinfo_82 fcd_82" vType="DEFAULT_VEHTYPE" speedFactor="1.03" vaporized=""/>
    <tripinfo id="86" depart="39.00" departLane="597602756#0_0" departPos="5.10" departSpeed="0.00" departDelay="22.20" arrival="144.00" arrivalLane="15374898#0-AddedOffRampEdge_0" arrivalPos="100.00" arrivalSpeed="31.43" duration="105.00" routeLength="1760.61" waitingTime="0.00" waitingCount="0" stopTime="0.00" timeLoss="30.04" rerouteNo="13" devices="tripinfo_86 fcd_86" vType="DEFAULT_VEHTYPE" speedFactor="1.15" vaporized=""/>
    <tripinfo id="81" depart="29.00" departLane="422688973_0" departPos="5.10" departSpeed="0.00" departDelay="13.20" arrival="151.00" arrivalLane="15374898#0-AddedOffRampEdge_0" arrivalPos="100.00" arrivalSpeed="29.66" duration="122.00" routeLength="1134.85" waitingTime="53.00" waitingCount="2" stopTime="0.00" timeLoss="83.69" rerouteNo="6" devices="tripinfo_81 fcd_81" vType="DEFAULT_VEHTYPE" speedFactor="1.09" vaporized=""/>
    <tripinfo id="43" depart="9.00" departLane="918280985_0" departPos="5.10" departSpeed="0.00" departDelay="0.80" arrival="153.00" arrivalLane="-597602756#0_0" arrivalPos="325.99" arrivalSpeed="21.00" duration="144.00" routeLength="1890.39" waitingTime="23.00" waitingCount="2" stopTime="0.00" timeLoss="54.46" rerouteNo="9" devices="tripinfo_43 fcd_43" vType="DEFAULT_VEHTYPE" speedFactor="0.96" vaporized=""/>
    <tripinfo id="97" depart="45.00" departLane="597602756#0_0" departPos="5.10" departSpeed="0.00" departDelay="26.00" arrival="154.00" arrivalLane="15374898#0-AddedOffRampEdge_0" arrivalPos="100.00" arrivalSpeed="28.52" duration="109.00" routeLength="1760.61" waitingTime="0.00" waitingCount="0" stopTime="0.00" timeLoss="28.32" rerouteNo="13" devices="tripinfo_97 fcd_97" vType="DEFAULT_VEHTYPE" speedFactor="1.06" vaporized=""/>
    <tripinfo id="58" depart="22.00" departLane="-260998164#3_0" departPos="5.10" departSpeed="0.00" departDelay="10.80" arrival="156.00" arrivalLane="-318908683#1_0" arrivalPos="71.22" arrivalSpeed="12.24" duration="134.00" routeLength="955.07" waitingTime="70.00" waitingCount="2" stopTime="0.00" timeLoss="90.98" rerouteNo="9" devices="tripinfo_58 fcd_58" vType="DEFAULT_VEHTYPE" speedFactor="0.90" vaporized=""/>
    <tripinfo id="73" depart="21.00" departLane="422688973_0" departPos="5.10" departSpeed="0.00" departDelay="6.80" arrival="155.00" arrivalLane="45673101#0_1" arrivalPos="28.22" arrivalSpeed="9.25" duration="134.00" routeLength="708.21" waitingTime="60.00" waitingCount="1" stopTime="0.00" timeLoss="79.95" rerouteNo="3" devices="tripinfo_73 fcd_73" vType="DEFAULT_VEHTYPE" speedFactor="0.97" vaporized="teleport"/>
    <tripinfo id="217" depart="73.00" departLane="-260998164#3_0" departPos="5.10" departSpeed="0.00" departDelay="30.00" arrival="156.00" arrivalLane="15374898#0-AddedOffRampEdge_0" arrivalPos="100.00" arrivalSpeed="28.94" duration="83.00" routeLength="1332.80" waitingTime="13.00" waitingCount="3" stopTime="0.00" timeLoss="38.32" rerouteNo="12" devices="tripinfo_217 fcd_217" vType="DEFAULT_VEHTYPE" speedFactor="1.09" vaporized=""/>
    <tripinfo id="3" depart="3.00" departLane="597602756#0_0" departPos="5.10" departSpeed="0.00" departDelay="2.80" arrival="159.00" arrivalLane="-318908683#1_0" arrivalPos="71.22" arrivalSpeed="11.76" duration="156.00" routeLength="1382.88" waitingTime="44.00" waitingCount="3" stopTime="0.00" timeLoss="74.47" rerouteNo="10" devices="tripinfo_3 fcd_3" vType="DEFAULT_VEHTYPE" speedFactor="0.94" vaporized=""/>
    <tripinfo id="167" depart="67.00" departLane="918280985_0" departPos="5.10" departSpeed="0.00" departDelay="34.00" arrival="159.00" arrivalLane="-105681660#20_0" arrivalPos="806.12" arrivalSpeed="20.10" duration="92.00" routeLength="1360.99" waitingTime="0.00" waitingCount="0" stopTime="0.00" timeLoss="8.73" rerouteNo="5" devices="tripinfo_167 fcd_167" vType="DEFAULT_VEHTYPE" speedFactor="0.91" vaporized=""/>
    <tripinfo id="17" depart="12.00" departLane="597602756#0_0" departPos="5.10" departSpeed="0.00" departDelay="9.00" arrival="161.00" arrivalLane="-318908683#1_0" arrivalPos="71.22" arrivalSpeed="11.90" duration="149.00" routeLength="1382.88" waitingTime="42.00" waitingCount="3" stopTime="0.00" timeLoss="67.71" rerouteNo="10" devices="tripinfo_17 fcd_17" vType="DEFAULT_VEHTYPE" speedFactor="0.93" vaporized=""/>
    <tripinfo id="29" depart="6.00" departLane="105681660#12_0" departPos="5.10" departSpeed="0.00" departDelay="0.60" arrival="161.00" arrivalLane="-597602756#0_0" arrivalPos="325.99" arrivalSpeed="20.97" duration="155.00" routeLength="1877.95" waitingTime="41.00" waitingCount="1" stopTime="0.00" timeLoss="63.03" rerouteNo="5" devices="tripinfo_29 fcd_29" vType="DEFAULT_VEHTYPE" speedFactor="0.95" vaporized=""/>
    <tripinfo id="213" depart="67.00" departLane="-260998164#3_0" departPos="5.10" departSpeed="0.00" departDelay="24.80" arrival="163.00" arrivalLane="-318908683#1_0" arrivalPos="71.22" arrivalSpeed="13.85" duration="96.00" routeLength="955.07" waitingTime="24.00" waitingCount="3" stopTime="0.00" timeLoss="58.52" rerouteNo="9" devices="tripinfo_213 fcd_213" vType="DEFAULT_VEHTYPE" speedFactor="1.04" vaporized=""/>
    <tripinfo id="99" depart="48.00" departLane="597602756#0_0" departPos="5.10" departSpeed="0.00" departDelay="28.60" arrival="166.00" arrivalLane="-318908683#1_0" arrivalPos="71.22" arrivalSpeed="11.36" duration="118.00" routeLength="1382.88" waitingTime="8.00" waitingCount="3" stopTime="0.00" timeLoss="34.12" rerouteNo="10" devices="tripinfo_99 fcd_99" vType="DEFAULT_VEHTYPE" speedFactor="0.91" vaporized=""/>
    <tripinfo id="165" depart="57.00" departLane="105681660#12_0" departPos="5.10" departSpeed="0.00" departDelay="24.40" arrival="167.00" arrivalLane="-597602753#1_0" arrivalPos="150.67" arrivalSpeed="24.30" duration="110.00" routeLength="1380.56" waitingTime="9.00" waitingCount="1" stopTime="0.00" timeLoss="53.13" rerouteNo="4" devices="tripinfo_165 fcd_165" vType="DEFAULT_VEHTYPE" speedFactor="1.13" vaporized=""/>
    <tripinfo id="201" depart="64.00" departLane="-260998164#3_0" departPos="5.10" departSpeed="0.00" departDelay="24.20" arrival="169.00" arrivalLane="-318908683#1_0" arrivalPos="71.22" arrivalSpeed="10.54" duration="105.00" routeLength="955.07" waitingTime="29.00" waitingCount="5" stopTime="0.00" timeLoss="57.95" rerouteNo="9" devices="tripinfo_201 fcd_201" vType="DEFAULT_VEHTYPE" speedFactor="0.83" vaporized=""/>
    <tripinfo id="185" depart="60.00" departLane="105681660#12_0" departPos="5.10" departSpeed="0.00" departDelay="23.40" arrival="170.00" arrivalLane="-597602753#1_0" arrivalPos="150.67" arrivalSpeed="23.45" duration="110.00" routeLength="1380.56" waitingTime="10.00" waitingCount="1" stopTime="0.00" timeLoss="51.45" rerouteNo="4" devices="tripinfo_185 fcd_185" vType="DEFAULT_VEHTYPE" speedFactor="1.08" vaporized=""/>
    <tripinfo id="148" depart="72.00" departLane="597602756#0_0" departPos="5.10" departSpeed="0.00" departDelay="42.80" arrival="177.00" arrivalLane="260998164#0_0" arrivalPos="257.55" arrivalSpeed="24.00" duration="105.00" routeLength="1239.91" waitingTime="6.00" waitingCount="1" stopTime="0.00" timeLoss="22.24" rerouteNo="7" devices="tripinfo_148 fcd_148" vType="DEFAULT_VEHTYPE" speedFactor="0.89" vaporized=""/>
    <tripinfo id="187" depart="63.00" departLane="105681660#12_0" departPos="5.10" departSpeed="0.00" departDelay="26.00" arrival="177.00" arrivalLane="-597602753#1_0" arrivalPos="150.67" arrivalSpeed="19.79" duration="114.00" routeLength="1380.56" waitingTime="4.00" waitingCount="1" stopTime="0.00" timeLoss="44.68" rerouteNo="4" devices="tripinfo_187 fcd_187" vType="DEFAULT_VEHTYPE" speedFactor="0.92" vaporized=""/>
    <tripinfo id="150" depart="75.00" departLane="597602756#0_0" departPos="5.10" departSpeed="0.00" departDelay="45.40" arrival="178.00" arrivalLane="260998164#0_0" arrivalPos="257.55" arrivalSpeed="26.22" duration="103.00" routeLength="1239.91" waitingTime="5.00" waitingCount="1" stopTime="0.00" timeLoss="27.87" rerouteNo="7" devices="tripinfo_150 fcd_150" vType="DEFAULT_VEHTYPE" speedFactor="0.97" vaporized=""/>
    <tripinfo id="39" depart="12.00" departLane="422688973_0" departPos="5.10" departSpeed="0.00" departDelay="4.60" arrival="180.00" arrivalLane="260998164#0_0" arrivalPos="257.55" arrivalSpeed="30.65" duration="168.00" routeLength="1577.62" waitingTime="66.00" waitingCount="1" stopTime="0.00" timeLoss="90.35" rerouteNo="9" devices="tripinfo_39 fcd_39" vType="DEFAULT_VEHTYPE" speedFactor="1.18" vaporized=""/>
    <tripinfo id="51" depart="18.00" departLane="597602753#0_0" departPos="5.10" departSpeed="0.00" departDelay="8.20" arrival="181.00" arrivalLane="-597602756#0_0" arrivalPos="325.99" arrivalSpeed="17.73" duration="163.00" routeLength="1646.06" waitingTime="38.00" waitingCount="4" stopTime="0.00" timeLoss="74.57" rerouteNo="8" devices="tripinfo_51 fcd_51" vType="DEFAULT_VEHTYPE" speedFactor="0.85" vaporized=""/>
    <tripinfo id="66" depart="15.00" departLane="918280985_0" departPos="5.10" departSpeed="0.00" departDelay="2.20" arrival="182.00" arrivalLane="-318908683#1_0" arrivalPos="71.22" arrivalSpeed="11.96" duration="167.00" routeLength="674.50" waitingTime="115.00" waitingCount="2" stopTime="0.00" timeLoss="134.34" rerouteNo="4" devices="tripinfo_66 fcd_66" vType="DEFAULT_VEHTYPE" speedFactor="0.94" vaporized=""/>
    <tripinfo id="103" depart="55.00" departLane="318908683#0_0" departPos="5.10" departSpeed="0.00" departDelay="34.80" arrival="182.00" arrivalLane="-597602753#1_0" arrivalPos="150.67" arrivalSpeed="20.83" duration="127.00" routeLength="1208.14" waitingTime="47.00" waitingCount="1" stopTime="0.00" timeLoss="68.13" rerouteNo="7" devices="tripinfo_103 fcd_103" vType="DEFAULT_VEHTYPE" speedFactor="0.96" vaporized=""/>
    <tripinfo id="172" depart="55.00" departLane="-260998164#3_0" departPos="5.10" departSpeed="0.00" departDelay="21.00" arrival="183.00" arrivalLane="-597602753#1_0" arrivalPos="150.67" arrivalSpeed="23.30" duration="128.00" routeLength="1970.36" waitingTime="24.00" waitingCount="1" stopTime="0.00" timeLoss="54.25" rerouteNo="15" devices="tripinfo_172 fcd_172" vType="DEFAULT_VEHTYPE" speedFactor="1.09" vaporized=""/>